HEADER
"PSFversion" "1.00"
"design" "(\"Design\" \"inverter_simulate\" \"schematic\" \"\")"
"simulator" "hspiceD"
"temperature" "25.0"
"host" ""
"date" "Sep 23 15:30:38 2019"
"title" ""
"analysisList" "()"
END
