HEADER
"PSFversion" "1.00"
"Time Stamp" "Sep 23 15:30:38 2019"
TYPE
"variable" STRUCT(
"value" FLOAT DOUBLE
) PROP( "key" "element" )
VALUE
"TEMPDC" "variable" ( 25.0 ) PROP( )
END
